  30  30   1   2
  0.1039148E+02  0.5103624E-09  0.5103624E-09  0.1382008E-08  0.5000000E-15
   1.0000000000000000E-004
  CAR 
 unknown system                          
     14.37136552    -16.76255421  301      3.59124582      1.00000000
    -16.763  0.0000E+00  0.0000E+00  0.0000E+00  0.0000E+00
    -16.659  0.0000E+00  0.0000E+00  0.0000E+00  0.0000E+00
    -16.555  0.0000E+00  0.0000E+00  0.0000E+00  0.0000E+00
    -16.451  0.0000E+00  0.0000E+00  0.0000E+00  0.0000E+00
    -16.347  0.0000E+00  0.0000E+00  0.0000E+00  0.0000E+00
    -16.244  0.0000E+00  0.0000E+00  0.0000E+00  0.0000E+00
    -16.140  0.0000E+00  0.0000E+00  0.0000E+00  0.0000E+00
    -16.036  0.0000E+00  0.0000E+00  0.0000E+00  0.0000E+00
    -15.932  0.0000E+00  0.0000E+00  0.0000E+00  0.0000E+00
    -15.829  0.0000E+00  0.0000E+00  0.0000E+00  0.0000E+00
    -15.725  0.0000E+00  0.0000E+00  0.0000E+00  0.0000E+00
    -15.621  0.2615E-14  0.0000E+00  0.2714E-15  0.0000E+00
    -15.517  0.4113E-06  0.0000E+00  0.4269E-07  0.0000E+00
    -15.413  0.1692E-01  0.0000E+00  0.1756E-02  0.0000E+00
    -15.310  0.6797E+00  0.0000E+00  0.7229E-01  0.0000E+00
    -15.206  0.1348E+01  0.0000E+00  0.2122E+00  0.0000E+00
    -15.102  0.2373E+01  0.0000E+00  0.4585E+00  0.0000E+00
    -14.998  0.2709E+01  0.0000E+00  0.7396E+00  0.0000E+00
    -14.895  0.3557E+01  0.1374E-07  0.1109E+01  0.1426E-08
    -14.791  0.5428E+01  0.3256E-02  0.1672E+01  0.3380E-03
    -14.687  0.7061E+01  0.4552E+00  0.2405E+01  0.4758E-01
    -14.583  0.6336E+01  0.1012E+01  0.3062E+01  0.1526E+00
    -14.479  0.7591E+01  0.2132E+01  0.3850E+01  0.3739E+00
    -14.376  0.7101E+01  0.2369E+01  0.4587E+01  0.6198E+00
    -14.272  0.5135E+01  0.2947E+01  0.5120E+01  0.9256E+00
    -14.168  0.7071E+01  0.3691E+01  0.5854E+01  0.1309E+01
    -14.064  0.2997E+02  0.4775E+01  0.8964E+01  0.1804E+01
    -13.961  0.5084E+02  0.5972E+01  0.1424E+02  0.2424E+01
    -13.857  0.3514E+02  0.6074E+01  0.1789E+02  0.3054E+01
    -13.753  0.1095E+01  0.6713E+01  0.1800E+02  0.3751E+01
    -13.649  0.1094E-03  0.6484E+01  0.1800E+02  0.4424E+01
    -13.545  0.5764E-11  0.4603E+01  0.1800E+02  0.4902E+01
    -13.442  0.0000E+00  0.7329E+01  0.1800E+02  0.5662E+01
    -13.338  0.0000E+00  0.1083E+02  0.1800E+02  0.6787E+01
    -13.234  0.0000E+00  0.1949E+02  0.1800E+02  0.8810E+01
    -13.130  0.0000E+00  0.3375E+02  0.1800E+02  0.1231E+02
    -13.026  0.0000E+00  0.4038E+02  0.1800E+02  0.1650E+02
    -12.923  0.0000E+00  0.1437E+02  0.1800E+02  0.1799E+02
    -12.819  0.0000E+00  0.6567E-01  0.1800E+02  0.1800E+02
    -12.715  0.0000E+00  0.2158E-06  0.1800E+02  0.1800E+02
    -12.611  0.0000E+00  0.0000E+00  0.1800E+02  0.1800E+02
    -12.508  0.0000E+00  0.0000E+00  0.1800E+02  0.1800E+02
    -12.404  0.0000E+00  0.0000E+00  0.1800E+02  0.1800E+02
    -12.300  0.0000E+00  0.0000E+00  0.1800E+02  0.1800E+02
    -12.196  0.0000E+00  0.0000E+00  0.1800E+02  0.1800E+02
    -12.092  0.0000E+00  0.0000E+00  0.1800E+02  0.1800E+02
    -11.989  0.0000E+00  0.0000E+00  0.1800E+02  0.1800E+02
    -11.885  0.0000E+00  0.0000E+00  0.1800E+02  0.1800E+02
    -11.781  0.0000E+00  0.0000E+00  0.1800E+02  0.1800E+02
    -11.677  0.0000E+00  0.0000E+00  0.1800E+02  0.1800E+02
    -11.574  0.0000E+00  0.0000E+00  0.1800E+02  0.1800E+02
    -11.470  0.0000E+00  0.0000E+00  0.1800E+02  0.1800E+02
    -11.366  0.0000E+00  0.0000E+00  0.1800E+02  0.1800E+02
    -11.262  0.0000E+00  0.0000E+00  0.1800E+02  0.1800E+02
    -11.158  0.0000E+00  0.0000E+00  0.1800E+02  0.1800E+02
    -11.055  0.0000E+00  0.0000E+00  0.1800E+02  0.1800E+02
    -10.951  0.0000E+00  0.0000E+00  0.1800E+02  0.1800E+02
    -10.847  0.0000E+00  0.0000E+00  0.1800E+02  0.1800E+02
    -10.743  0.0000E+00  0.0000E+00  0.1800E+02  0.1800E+02
    -10.640  0.0000E+00  0.0000E+00  0.1800E+02  0.1800E+02
    -10.536  0.0000E+00  0.0000E+00  0.1800E+02  0.1800E+02
    -10.432  0.0000E+00  0.0000E+00  0.1800E+02  0.1800E+02
    -10.328  0.0000E+00  0.0000E+00  0.1800E+02  0.1800E+02
    -10.224  0.0000E+00  0.0000E+00  0.1800E+02  0.1800E+02
    -10.121  0.0000E+00  0.0000E+00  0.1800E+02  0.1800E+02
    -10.017  0.0000E+00  0.0000E+00  0.1800E+02  0.1800E+02
     -9.913  0.0000E+00  0.0000E+00  0.1800E+02  0.1800E+02
     -9.809  0.0000E+00  0.0000E+00  0.1800E+02  0.1800E+02
     -9.706  0.0000E+00  0.0000E+00  0.1800E+02  0.1800E+02
     -9.602  0.0000E+00  0.0000E+00  0.1800E+02  0.1800E+02
     -9.498  0.0000E+00  0.0000E+00  0.1800E+02  0.1800E+02
     -9.394  0.0000E+00  0.0000E+00  0.1800E+02  0.1800E+02
     -9.290  0.0000E+00  0.0000E+00  0.1800E+02  0.1800E+02
     -9.187  0.0000E+00  0.0000E+00  0.1800E+02  0.1800E+02
     -9.083  0.0000E+00  0.0000E+00  0.1800E+02  0.1800E+02
     -8.979  0.0000E+00  0.0000E+00  0.1800E+02  0.1800E+02
     -8.875  0.0000E+00  0.0000E+00  0.1800E+02  0.1800E+02
     -8.772  0.0000E+00  0.0000E+00  0.1800E+02  0.1800E+02
     -8.668  0.0000E+00  0.0000E+00  0.1800E+02  0.1800E+02
     -8.564  0.0000E+00  0.0000E+00  0.1800E+02  0.1800E+02
     -8.460  0.0000E+00  0.0000E+00  0.1800E+02  0.1800E+02
     -8.356  0.0000E+00  0.0000E+00  0.1800E+02  0.1800E+02
     -8.253  0.0000E+00  0.0000E+00  0.1800E+02  0.1800E+02
     -8.149  0.0000E+00  0.0000E+00  0.1800E+02  0.1800E+02
     -8.045  0.0000E+00  0.0000E+00  0.1800E+02  0.1800E+02
     -7.941  0.0000E+00  0.0000E+00  0.1800E+02  0.1800E+02
     -7.837  0.0000E+00  0.0000E+00  0.1800E+02  0.1800E+02
     -7.734  0.0000E+00  0.0000E+00  0.1800E+02  0.1800E+02
     -7.630  0.0000E+00  0.0000E+00  0.1800E+02  0.1800E+02
     -7.526  0.0000E+00  0.0000E+00  0.1800E+02  0.1800E+02
     -7.422  0.0000E+00  0.0000E+00  0.1800E+02  0.1800E+02
     -7.319  0.0000E+00  0.0000E+00  0.1800E+02  0.1800E+02
     -7.215  0.0000E+00  0.0000E+00  0.1800E+02  0.1800E+02
     -7.111  0.0000E+00  0.0000E+00  0.1800E+02  0.1800E+02
     -7.007  0.0000E+00  0.0000E+00  0.1800E+02  0.1800E+02
     -6.903  0.0000E+00  0.0000E+00  0.1800E+02  0.1800E+02
     -6.800  0.0000E+00  0.0000E+00  0.1800E+02  0.1800E+02
     -6.696  0.0000E+00  0.0000E+00  0.1800E+02  0.1800E+02
     -6.592  0.0000E+00  0.0000E+00  0.1800E+02  0.1800E+02
     -6.488  0.0000E+00  0.0000E+00  0.1800E+02  0.1800E+02
     -6.385  0.0000E+00  0.0000E+00  0.1800E+02  0.1800E+02
     -6.281  0.0000E+00  0.0000E+00  0.1800E+02  0.1800E+02
     -6.177  0.0000E+00  0.0000E+00  0.1800E+02  0.1800E+02
     -6.073  0.0000E+00  0.0000E+00  0.1800E+02  0.1800E+02
     -5.969  0.0000E+00  0.0000E+00  0.1800E+02  0.1800E+02
     -5.866  0.0000E+00  0.0000E+00  0.1800E+02  0.1800E+02
     -5.762  0.0000E+00  0.0000E+00  0.1800E+02  0.1800E+02
     -5.658  0.0000E+00  0.0000E+00  0.1800E+02  0.1800E+02
     -5.554  0.0000E+00  0.0000E+00  0.1800E+02  0.1800E+02
     -5.451  0.0000E+00  0.0000E+00  0.1800E+02  0.1800E+02
     -5.347  0.0000E+00  0.0000E+00  0.1800E+02  0.1800E+02
     -5.243  0.2976E-08  0.0000E+00  0.1800E+02  0.1800E+02
     -5.139  0.3233E-02  0.0000E+00  0.1800E+02  0.1800E+02
     -5.035  0.2675E+01  0.0000E+00  0.1828E+02  0.1800E+02
     -4.932  0.2113E+02  0.0000E+00  0.2047E+02  0.1800E+02
     -4.828  0.1893E+02  0.0000E+00  0.2244E+02  0.1800E+02
     -4.724  0.3026E+02  0.0000E+00  0.2558E+02  0.1800E+02
     -4.620  0.3691E+02  0.0000E+00  0.2941E+02  0.1800E+02
     -4.517  0.4016E+02  0.0000E+00  0.3357E+02  0.1800E+02
     -4.413  0.3175E+02  0.0000E+00  0.3687E+02  0.1800E+02
     -4.309  0.3714E+02  0.0000E+00  0.4072E+02  0.1800E+02
     -4.205  0.2841E+02  0.0000E+00  0.4367E+02  0.1800E+02
     -4.101  0.2453E+02  0.0000E+00  0.4622E+02  0.1800E+02
     -3.998  0.1549E+02  0.0000E+00  0.4783E+02  0.1800E+02
     -3.894  0.4434E+01  0.0000E+00  0.4829E+02  0.1800E+02
     -3.790  0.1306E+02  0.0000E+00  0.4964E+02  0.1800E+02
     -3.686  0.2506E+02  0.0000E+00  0.5224E+02  0.1800E+02
     -3.583  0.2936E+02  0.0000E+00  0.5529E+02  0.1800E+02
     -3.479  0.4766E+02  0.0000E+00  0.6023E+02  0.1800E+02
     -3.375  0.4064E+02  0.0000E+00  0.6445E+02  0.1800E+02
     -3.271  0.4706E+02  0.0000E+00  0.6934E+02  0.1800E+02
     -3.167  0.4557E+02  0.0000E+00  0.7407E+02  0.1800E+02
     -3.064  0.1437E+02  0.0000E+00  0.7556E+02  0.1800E+02
     -2.960  0.9264E+01  0.0000E+00  0.7652E+02  0.1800E+02
     -2.856  0.9101E+01  0.0000E+00  0.7746E+02  0.1800E+02
     -2.752  0.4887E+01  0.0000E+00  0.7797E+02  0.1800E+02
     -2.649  0.2941E+00  0.0000E+00  0.7800E+02  0.1800E+02
     -2.545  0.1403E-03  0.0000E+00  0.7800E+02  0.1800E+02
     -2.441  0.5686E-10  0.0000E+00  0.7800E+02  0.1800E+02
     -2.337  0.0000E+00  0.3741E-13  0.7800E+02  0.1800E+02
     -2.233  0.0000E+00  0.2186E-05  0.7800E+02  0.1800E+02
     -2.130  0.0000E+00  0.3660E-01  0.7800E+02  0.1800E+02
     -2.026  0.0000E+00  0.8789E+00  0.7800E+02  0.1810E+02
     -1.922  0.2616E-08  0.2154E+01  0.7800E+02  0.1832E+02
     -1.818  0.1354E-02  0.4894E+01  0.7800E+02  0.1883E+02
     -1.714  0.3148E+00  0.9268E+01  0.7803E+02  0.1979E+02
     -1.611  0.1304E+01  0.1494E+02  0.7817E+02  0.2134E+02
     -1.507  0.3969E+01  0.1285E+02  0.7858E+02  0.2267E+02
     -1.403  0.3962E+01  0.1385E+02  0.7899E+02  0.2411E+02
     -1.299  0.3924E+01  0.1483E+02  0.7940E+02  0.2565E+02
     -1.196  0.7424E+01  0.7124E+01  0.8017E+02  0.2639E+02
     -1.092  0.7746E+01  0.6713E+01  0.8097E+02  0.2708E+02
     -0.988  0.8018E+01  0.6715E+01  0.8180E+02  0.2778E+02
     -0.884  0.9793E+01  0.7551E+01  0.8282E+02  0.2856E+02
     -0.780  0.1114E+02  0.9181E+01  0.8398E+02  0.2952E+02
     -0.677  0.8350E+01  0.1265E+02  0.8484E+02  0.3083E+02
     -0.573  0.6586E+01  0.1385E+02  0.8553E+02  0.3227E+02
     -0.469  0.8207E+01  0.1284E+02  0.8638E+02  0.3360E+02
     -0.365  0.8271E+01  0.1282E+02  0.8724E+02  0.3493E+02
     -0.262  0.1194E+02  0.1223E+02  0.8848E+02  0.3620E+02
     -0.158  0.1135E+02  0.7850E+01  0.8965E+02  0.3701E+02
     -0.054  0.7607E+01  0.1105E+02  0.9044E+02  0.3816E+02
      0.050  0.8082E+01  0.1186E+02  0.9128E+02  0.3939E+02
      0.154  0.1026E+02  0.1131E+02  0.9235E+02  0.4056E+02
      0.257  0.1157E+02  0.1786E+02  0.9355E+02  0.4242E+02
      0.361  0.8899E+01  0.1534E+02  0.9447E+02  0.4401E+02
      0.465  0.7738E+01  0.1849E+02  0.9527E+02  0.4593E+02
      0.569  0.8703E+01  0.1992E+02  0.9618E+02  0.4800E+02
      0.672  0.1065E+02  0.1676E+02  0.9728E+02  0.4974E+02
      0.776  0.9446E+01  0.9111E+01  0.9826E+02  0.5068E+02
      0.880  0.1153E+02  0.1075E+02  0.9946E+02  0.5180E+02
      0.984  0.1076E+02  0.1172E+02  0.1006E+03  0.5301E+02
      1.088  0.1201E+02  0.8907E+01  0.1018E+03  0.5394E+02
      1.191  0.1035E+02  0.4818E+01  0.1029E+03  0.5444E+02
      1.295  0.9781E+01  0.1504E+02  0.1039E+03  0.5600E+02
      1.399  0.1084E+02  0.1844E+02  0.1050E+03  0.5791E+02
      1.503  0.9476E+01  0.1412E+02  0.1060E+03  0.5938E+02
      1.606  0.8564E+01  0.1147E+02  0.1069E+03  0.6057E+02
      1.710  0.8234E+01  0.1650E+02  0.1078E+03  0.6228E+02
      1.814  0.1219E+02  0.7232E+01  0.1090E+03  0.6303E+02
      1.918  0.1287E+02  0.7659E+01  0.1104E+03  0.6383E+02
      2.022  0.1645E+02  0.1350E+02  0.1121E+03  0.6523E+02
      2.125  0.1303E+02  0.1225E+02  0.1134E+03  0.6650E+02
      2.229  0.1360E+02  0.6683E+01  0.1148E+03  0.6719E+02
      2.333  0.1206E+02  0.1070E+02  0.1161E+03  0.6830E+02
      2.437  0.1198E+02  0.1693E+02  0.1173E+03  0.7006E+02
      2.540  0.1137E+02  0.1325E+02  0.1185E+03  0.7144E+02
      2.644  0.1202E+02  0.4537E+01  0.1198E+03  0.7191E+02
      2.748  0.1538E+02  0.8838E+00  0.1214E+03  0.7200E+02
      2.852  0.1460E+02  0.6940E-02  0.1229E+03  0.7200E+02
      2.956  0.1477E+02  0.4782E-07  0.1244E+03  0.7200E+02
      3.059  0.2301E+02  0.8915E-16  0.1268E+03  0.7200E+02
      3.163  0.2865E+02  0.0000E+00  0.1298E+03  0.7200E+02
      3.267  0.1736E+02  0.0000E+00  0.1316E+03  0.7200E+02
      3.371  0.3948E+01  0.0000E+00  0.1320E+03  0.7200E+02
      3.474  0.2434E+00  0.0000E+00  0.1320E+03  0.7200E+02
      3.578  0.3052E-03  0.0000E+00  0.1320E+03  0.7200E+02
      3.682  0.2630E-09  0.0000E+00  0.1320E+03  0.7200E+02
      3.786  0.0000E+00  0.0000E+00  0.1320E+03  0.7200E+02
      3.890  0.0000E+00  0.0000E+00  0.1320E+03  0.7200E+02
      3.993  0.0000E+00  0.0000E+00  0.1320E+03  0.7200E+02
      4.097  0.0000E+00  0.0000E+00  0.1320E+03  0.7200E+02
      4.201  0.0000E+00  0.0000E+00  0.1320E+03  0.7200E+02
      4.305  0.0000E+00  0.0000E+00  0.1320E+03  0.7200E+02
      4.409  0.0000E+00  0.0000E+00  0.1320E+03  0.7200E+02
      4.512  0.0000E+00  0.0000E+00  0.1320E+03  0.7200E+02
      4.616  0.0000E+00  0.0000E+00  0.1320E+03  0.7200E+02
      4.720  0.0000E+00  0.3777E-12  0.1320E+03  0.7200E+02
      4.824  0.0000E+00  0.1403E-04  0.1320E+03  0.7200E+02
      4.927  0.0000E+00  0.1782E+00  0.1320E+03  0.7202E+02
      5.031  0.0000E+00  0.5609E+01  0.1320E+03  0.7260E+02
      5.135  0.0000E+00  0.1989E+02  0.1320E+03  0.7466E+02
      5.239  0.0000E+00  0.2269E+02  0.1320E+03  0.7702E+02
      5.343  0.0000E+00  0.2050E+02  0.1320E+03  0.7915E+02
      5.446  0.0000E+00  0.2413E+02  0.1320E+03  0.8165E+02
      5.550  0.0000E+00  0.2329E+02  0.1320E+03  0.8407E+02
      5.654  0.0000E+00  0.2508E+02  0.1320E+03  0.8667E+02
      5.758  0.0000E+00  0.3376E+02  0.1320E+03  0.9017E+02
      5.861  0.0000E+00  0.2949E+02  0.1320E+03  0.9323E+02
      5.965  0.0000E+00  0.2966E+02  0.1320E+03  0.9631E+02
      6.069  0.0000E+00  0.3274E+02  0.1320E+03  0.9971E+02
      6.173  0.0000E+00  0.3740E+02  0.1320E+03  0.1036E+03
      6.277  0.0000E+00  0.3092E+02  0.1320E+03  0.1068E+03
      6.380  0.0000E+00  0.3308E+02  0.1320E+03  0.1102E+03
      6.484  0.0000E+00  0.2555E+02  0.1320E+03  0.1129E+03
      6.588  0.0000E+00  0.1850E+02  0.1320E+03  0.1148E+03
      6.692  0.0000E+00  0.1952E+02  0.1320E+03  0.1168E+03
      6.795  0.0000E+00  0.1974E+02  0.1320E+03  0.1189E+03
      6.899  0.0000E+00  0.2113E+02  0.1320E+03  0.1211E+03
      7.003  0.0000E+00  0.2072E+02  0.1320E+03  0.1232E+03
      7.107  0.0000E+00  0.2026E+02  0.1320E+03  0.1253E+03
      7.211  0.0000E+00  0.2180E+02  0.1320E+03  0.1276E+03
      7.314  0.0000E+00  0.1434E+02  0.1320E+03  0.1291E+03
      7.418  0.0000E+00  0.1092E+02  0.1320E+03  0.1302E+03
      7.522  0.0000E+00  0.9993E+01  0.1320E+03  0.1312E+03
      7.626  0.0000E+00  0.6334E+01  0.1320E+03  0.1319E+03
      7.729  0.3358E-11  0.9517E+00  0.1320E+03  0.1320E+03
      7.833  0.3314E-04  0.4266E-02  0.1320E+03  0.1320E+03
      7.937  0.9805E-01  0.3010E-07  0.1320E+03  0.1320E+03
      8.041  0.4260E+00  0.5943E-16  0.1321E+03  0.1320E+03
      8.145  0.1958E-01  0.0000E+00  0.1321E+03  0.1320E+03
      8.248  0.4103E+00  0.0000E+00  0.1321E+03  0.1320E+03
      8.352  0.1167E+00  0.0000E+00  0.1321E+03  0.1320E+03
      8.456  0.5459E-04  0.0000E+00  0.1321E+03  0.1320E+03
      8.560  0.1279E-02  0.0000E+00  0.1321E+03  0.1320E+03
      8.663  0.4909E+00  0.0000E+00  0.1322E+03  0.1320E+03
      8.767  0.7974E+00  0.7403E-10  0.1322E+03  0.1320E+03
      8.871  0.5873E+00  0.1967E-03  0.1323E+03  0.1320E+03
      8.975  0.4910E+00  0.1763E+00  0.1324E+03  0.1320E+03
      9.079  0.3071E+00  0.3555E+00  0.1324E+03  0.1321E+03
      9.182  0.7074E-01  0.3503E-01  0.1324E+03  0.1321E+03
      9.286  0.9512E+00  0.4582E+00  0.1325E+03  0.1321E+03
      9.390  0.9695E+00  0.4542E-01  0.1326E+03  0.1321E+03
      9.494  0.2635E+00  0.4461E-05  0.1326E+03  0.1321E+03
      9.597  0.4150E+00  0.9611E-02  0.1327E+03  0.1321E+03
      9.701  0.4495E+00  0.7575E+00  0.1327E+03  0.1322E+03
      9.805  0.9275E+00  0.6201E+00  0.1328E+03  0.1323E+03
      9.909  0.2097E+01  0.6108E+00  0.1330E+03  0.1323E+03
     10.013  0.3542E+00  0.3972E+00  0.1331E+03  0.1324E+03
     10.116  0.4950E+00  0.2804E+00  0.1331E+03  0.1324E+03
     10.220  0.1094E+01  0.1832E+00  0.1332E+03  0.1324E+03
     10.324  0.1307E+01  0.8787E+00  0.1334E+03  0.1325E+03
     10.428  0.1787E+01  0.8410E+00  0.1335E+03  0.1326E+03
     10.532  0.9683E+00  0.2906E+00  0.1336E+03  0.1326E+03
     10.635  0.1189E+01  0.4610E+00  0.1338E+03  0.1327E+03
     10.739  0.1000E+01  0.6858E+00  0.1339E+03  0.1327E+03
     10.843  0.1766E+01  0.6044E+00  0.1341E+03  0.1328E+03
     10.947  0.1808E+01  0.2286E+01  0.1342E+03  0.1330E+03
     11.050  0.1565E+01  0.3340E+00  0.1344E+03  0.1331E+03
     11.154  0.2099E+01  0.4447E+00  0.1346E+03  0.1331E+03
     11.258  0.2528E+01  0.8137E+00  0.1349E+03  0.1332E+03
     11.362  0.2251E+01  0.1360E+01  0.1351E+03  0.1333E+03
     11.466  0.2118E+01  0.1711E+01  0.1353E+03  0.1335E+03
     11.569  0.2231E+01  0.1144E+01  0.1356E+03  0.1336E+03
     11.673  0.6152E+00  0.9315E+00  0.1356E+03  0.1337E+03
     11.777  0.8130E+00  0.1077E+01  0.1357E+03  0.1338E+03
     11.881  0.1137E+01  0.2398E+01  0.1358E+03  0.1341E+03
     11.984  0.1305E+01  0.1078E+01  0.1360E+03  0.1342E+03
     12.088  0.2229E+00  0.1750E+01  0.1360E+03  0.1344E+03
     12.192  0.1090E-03  0.1382E+01  0.1360E+03  0.1345E+03
     12.296  0.1916E-10  0.2814E+01  0.1360E+03  0.1348E+03
     12.400  0.0000E+00  0.2889E+01  0.1360E+03  0.1351E+03
     12.503  0.0000E+00  0.1749E+01  0.1360E+03  0.1353E+03
     12.607  0.0000E+00  0.1870E+01  0.1360E+03  0.1355E+03
     12.711  0.0000E+00  0.1703E+01  0.1360E+03  0.1357E+03
     12.815  0.0000E+00  0.5843E+00  0.1360E+03  0.1357E+03
     12.918  0.0000E+00  0.1352E+01  0.1360E+03  0.1359E+03
     13.022  0.0000E+00  0.1161E+01  0.1360E+03  0.1360E+03
     13.126  0.0000E+00  0.1955E-01  0.1360E+03  0.1360E+03
     13.230  0.0000E+00  0.4262E-06  0.1360E+03  0.1360E+03
     13.334  0.0000E+00  0.2674E-14  0.1360E+03  0.1360E+03
     13.437  0.0000E+00  0.0000E+00  0.1360E+03  0.1360E+03
     13.541  0.0000E+00  0.0000E+00  0.1360E+03  0.1360E+03
     13.645  0.0000E+00  0.0000E+00  0.1360E+03  0.1360E+03
     13.749  0.0000E+00  0.0000E+00  0.1360E+03  0.1360E+03
     13.852  0.0000E+00  0.0000E+00  0.1360E+03  0.1360E+03
     13.956  0.0000E+00  0.0000E+00  0.1360E+03  0.1360E+03
     14.060  0.0000E+00  0.0000E+00  0.1360E+03  0.1360E+03
     14.164  0.0000E+00  0.0000E+00  0.1360E+03  0.1360E+03
     14.268  0.0000E+00  0.0000E+00  0.1360E+03  0.1360E+03
     14.371  0.0000E+00  0.0000E+00  0.1360E+03  0.1360E+03
     14.37136552    -16.76255421  301      3.59124582      1.00000000
    -16.763  0.0000E+00  0.0000E+00  0.0000E+00  0.0000E+00  0.0000E+00  0.0000E+00  0.0000E+00  0.0000E+00  0.0000E+00  0.0000E+00  0.0000E+00  0.0000E+00  0.0000E+00  0.0000E+00  0.0000E+00  0.0000E+00  0.0000E+00  0.0000E+00
    -16.659  0.0000E+00  0.0000E+00  0.0000E+00  0.0000E+00  0.0000E+00  0.0000E+00  0.0000E+00  0.0000E+00  0.0000E+00  0.0000E+00  0.0000E+00  0.0000E+00  0.0000E+00  0.0000E+00  0.0000E+00  0.0000E+00  0.0000E+00  0.0000E+00
    -16.555  0.0000E+00  0.0000E+00  0.0000E+00  0.0000E+00  0.0000E+00  0.0000E+00  0.0000E+00  0.0000E+00  0.0000E+00  0.0000E+00  0.0000E+00  0.0000E+00  0.0000E+00  0.0000E+00  0.0000E+00  0.0000E+00  0.0000E+00  0.0000E+00
    -16.451  0.0000E+00  0.0000E+00  0.0000E+00  0.0000E+00  0.0000E+00  0.0000E+00  0.0000E+00  0.0000E+00  0.0000E+00  0.0000E+00  0.0000E+00  0.0000E+00  0.0000E+00  0.0000E+00  0.0000E+00  0.0000E+00  0.0000E+00  0.0000E+00
    -16.347  0.0000E+00  0.0000E+00  0.0000E+00  0.0000E+00  0.0000E+00  0.0000E+00  0.0000E+00  0.0000E+00  0.0000E+00  0.0000E+00  0.0000E+00  0.0000E+00  0.0000E+00  0.0000E+00  0.0000E+00  0.0000E+00  0.0000E+00  0.0000E+00
    -16.244  0.0000E+00  0.0000E+00  0.0000E+00  0.0000E+00  0.0000E+00  0.0000E+00  0.0000E+00  0.0000E+00  0.0000E+00  0.0000E+00  0.0000E+00  0.0000E+00  0.0000E+00  0.0000E+00  0.0000E+00  0.0000E+00  0.0000E+00  0.0000E+00
    -16.140  0.0000E+00  0.0000E+00  0.0000E+00  0.0000E+00  0.0000E+00  0.0000E+00  0.0000E+00  0.0000E+00  0.0000E+00  0.0000E+00  0.0000E+00  0.0000E+00  0.0000E+00  0.0000E+00  0.0000E+00  0.0000E+00  0.0000E+00  0.0000E+00
    -16.036  0.0000E+00  0.0000E+00  0.0000E+00  0.0000E+00  0.0000E+00  0.0000E+00  0.0000E+00  0.0000E+00  0.0000E+00  0.0000E+00  0.0000E+00  0.0000E+00  0.0000E+00  0.0000E+00  0.0000E+00  0.0000E+00  0.0000E+00  0.0000E+00
    -15.932  0.0000E+00  0.0000E+00  0.0000E+00  0.0000E+00  0.0000E+00  0.0000E+00  0.0000E+00  0.0000E+00  0.0000E+00  0.0000E+00  0.0000E+00  0.0000E+00  0.0000E+00  0.0000E+00  0.0000E+00  0.0000E+00  0.0000E+00  0.0000E+00
    -15.829  0.0000E+00  0.0000E+00  0.0000E+00  0.0000E+00  0.0000E+00  0.0000E+00  0.0000E+00  0.0000E+00  0.0000E+00  0.0000E+00  0.0000E+00  0.0000E+00  0.0000E+00  0.0000E+00  0.0000E+00  0.0000E+00  0.0000E+00  0.0000E+00
    -15.725  0.0000E+00  0.0000E+00  0.0000E+00  0.0000E+00  0.0000E+00  0.0000E+00  0.0000E+00  0.0000E+00  0.0000E+00  0.0000E+00  0.0000E+00  0.0000E+00  0.0000E+00  0.0000E+00  0.0000E+00  0.0000E+00  0.0000E+00  0.0000E+00
    -15.621  0.2257E-16  0.0000E+00  0.1028E-18  0.0000E+00  0.2299E-18  0.0000E+00  0.1028E-18  0.0000E+00  0.2602E-19  0.0000E+00  0.1369E-19  0.0000E+00  0.8147E-19  0.0000E+00  0.1369E-19  0.0000E+00  0.2602E-19  0.0000E+00
    -15.517  0.3550E-08  0.0000E+00  0.1620E-10  0.0000E+00  0.3617E-10  0.0000E+00  0.1620E-10  0.0000E+00  0.4101E-11  0.0000E+00  0.2157E-11  0.0000E+00  0.1281E-10  0.0000E+00  0.2157E-11  0.0000E+00  0.4101E-11  0.0000E+00
    -15.413  0.1459E-03  0.0000E+00  0.7049E-06  0.0000E+00  0.1490E-05  0.0000E+00  0.7049E-06  0.0000E+00  0.1789E-06  0.0000E+00  0.9412E-07  0.0000E+00  0.5252E-06  0.0000E+00  0.9412E-07  0.0000E+00  0.1789E-06  0.0000E+00
    -15.310  0.5798E-02  0.0000E+00  0.4580E-04  0.0000E+00  0.6069E-04  0.0000E+00  0.4580E-04  0.0000E+00  0.1186E-04  0.0000E+00  0.6293E-05  0.0000E+00  0.2019E-04  0.0000E+00  0.6293E-05  0.0000E+00  0.1186E-04  0.0000E+00
    -15.206  0.1072E-01  0.0000E+00  0.2659E-03  0.0000E+00  0.2012E-03  0.0000E+00  0.2659E-03  0.0000E+00  0.7494E-04  0.0000E+00  0.4189E-04  0.0000E+00  0.4500E-04  0.0000E+00  0.4189E-04  0.0000E+00  0.7494E-04  0.0000E+00
    -15.102  0.1770E-01  0.0000E+00  0.5884E-03  0.0000E+00  0.7025E-03  0.0000E+00  0.5884E-03  0.0000E+00  0.1888E-03  0.0000E+00  0.1216E-03  0.0000E+00  0.1386E-03  0.0000E+00  0.1216E-03  0.0000E+00  0.1888E-03  0.0000E+00
    -14.998  0.1834E-01  0.0000E+00  0.1059E-02  0.0000E+00  0.9226E-03  0.0000E+00  0.1059E-02  0.0000E+00  0.3999E-03  0.0000E+00  0.2925E-03  0.0000E+00  0.1552E-03  0.0000E+00  0.2925E-03  0.0000E+00  0.3999E-03  0.0000E+00
    -14.895  0.2155E-01  0.1164E-09  0.1950E-02  0.5300E-12  0.1311E-02  0.1183E-11  0.1950E-02  0.5300E-12  0.7946E-03  0.5269E-13  0.5816E-03  0.2547E-13  0.1929E-03  0.1938E-12  0.5816E-03  0.2547E-13  0.7946E-03  0.5269E-13
    -14.791  0.2944E-01  0.2758E-04  0.2855E-02  0.1284E-06  0.3470E-02  0.2806E-06  0.2855E-02  0.1284E-06  0.1501E-02  0.1278E-07  0.1281E-02  0.6177E-08  0.5931E-03  0.4589E-07  0.1281E-02  0.6177E-08  0.1501E-02  0.1278E-07
    -14.687  0.3237E-01  0.3830E-02  0.4814E-02  0.2537E-04  0.4208E-02  0.3945E-04  0.4814E-02  0.2537E-04  0.3124E-02  0.2563E-05  0.2827E-02  0.1248E-05  0.5919E-03  0.6256E-05  0.2827E-02  0.1248E-05  0.3124E-02  0.2563E-05
    -14.583  0.2511E-01  0.8139E-02  0.5296E-02  0.1538E-03  0.3569E-02  0.1090E-03  0.5296E-02  0.1538E-03  0.3306E-02  0.1660E-04  0.2877E-02  0.8438E-05  0.4655E-03  0.1349E-04  0.2877E-02  0.8438E-05  0.3306E-02  0.1660E-04
    -14.479  0.2514E-01  0.1607E-01  0.5567E-02  0.4549E-03  0.7741E-02  0.5520E-03  0.5567E-02  0.4549E-03  0.3935E-02  0.5414E-04  0.3555E-02  0.3154E-04  0.1475E-02  0.5382E-04  0.3555E-02  0.3154E-04  0.3935E-02  0.5414E-04
    -14.376  0.1956E-01  0.1650E-01  0.5637E-02  0.7706E-03  0.7106E-02  0.7763E-03  0.5637E-02  0.7706E-03  0.4543E-02  0.1089E-03  0.4278E-02  0.7780E-04  0.1343E-02  0.6697E-04  0.4278E-02  0.7780E-04  0.4543E-02  0.1089E-03
    -14.272  0.9691E-02  0.1857E-01  0.4922E-02  0.1531E-02  0.4584E-02  0.8602E-03  0.4922E-02  0.1531E-02  0.4221E-02  0.2294E-03  0.3974E-02  0.1590E-03  0.8275E-03  0.6080E-04  0.3974E-02  0.1590E-03  0.4221E-02  0.2294E-03
    -14.168  0.1119E-01  0.2126E-01  0.5579E-02  0.1865E-02  0.7877E-02  0.2045E-02  0.5579E-02  0.1865E-02  0.4855E-02  0.3347E-03  0.6047E-02  0.2655E-03  0.1926E-02  0.1666E-03  0.6047E-02  0.2655E-03  0.4855E-02  0.3347E-03
    -14.064  0.3746E-01  0.2507E-01  0.2177E-01  0.2697E-02  0.1455E-01  0.3045E-02  0.2177E-01  0.2697E-02  0.2578E-01  0.5775E-03  0.4364E-01  0.5083E-03  0.4817E-02  0.2404E-03  0.4364E-01  0.5083E-03  0.2578E-01  0.5775E-03
    -13.961  0.2357E-01  0.2688E-01  0.4358E-01  0.4501E-02  0.2890E-01  0.3273E-02  0.4358E-01  0.4501E-02  0.4951E-01  0.1157E-02  0.7754E-01  0.1047E-02  0.8015E-02  0.2024E-03  0.7754E-01  0.1047E-02  0.4951E-01  0.1157E-02
    -13.857  0.1031E-01  0.2425E-01  0.3715E-01  0.5107E-02  0.2963E-01  0.3625E-02  0.3715E-01  0.5107E-02  0.2763E-01  0.1346E-02  0.3829E-01  0.1206E-02  0.8432E-02  0.2262E-03  0.3829E-01  0.1206E-02  0.2763E-01  0.1346E-02
    -13.753  0.3925E-03  0.2284E-01  0.1038E-02  0.4932E-02  0.1401E-02  0.7269E-02  0.1038E-02  0.4932E-02  0.7107E-03  0.1369E-02  0.9273E-03  0.1236E-02  0.4092E-03  0.6257E-03  0.9273E-03  0.1236E-02  0.7107E-03  0.1369E-02
    -13.649  0.4503E-07  0.1826E-01  0.9237E-07  0.5854E-02  0.1738E-06  0.6336E-02  0.9237E-07  0.5854E-02  0.6281E-07  0.1670E-02  0.7704E-07  0.1488E-02  0.5093E-07  0.5065E-03  0.7704E-07  0.1488E-02  0.6281E-07  0.1670E-02
    -13.545  0.2377E-14  0.9704E-02  0.5009E-14  0.4945E-02  0.9328E-14  0.4402E-02  0.5009E-14  0.4945E-02  0.3198E-14  0.1353E-02  0.3695E-14  0.1158E-02  0.2733E-14  0.3448E-03  0.3695E-14  0.1158E-02  0.3198E-14  0.1353E-02
    -13.442  0.0000E+00  0.1196E-01  0.0000E+00  0.7127E-02  0.0000E+00  0.9793E-02  0.0000E+00  0.7127E-02  0.0000E+00  0.1636E-02  0.0000E+00  0.1607E-02  0.0000E+00  0.9660E-03  0.0000E+00  0.1607E-02  0.0000E+00  0.1636E-02
    -13.338  0.0000E+00  0.1609E-01  0.0000E+00  0.1210E-01  0.0000E+00  0.9895E-02  0.0000E+00  0.1210E-01  0.0000E+00  0.2025E-02  0.0000E+00  0.2792E-02  0.0000E+00  0.1133E-02  0.0000E+00  0.2792E-02  0.0000E+00  0.2025E-02
    -13.234  0.0000E+00  0.1865E-01  0.0000E+00  0.2412E-01  0.0000E+00  0.1280E-01  0.0000E+00  0.2412E-01  0.0000E+00  0.4894E-02  0.0000E+00  0.7090E-02  0.0000E+00  0.1583E-02  0.0000E+00  0.7090E-02  0.0000E+00  0.4894E-02
    -13.130  0.0000E+00  0.2083E-01  0.0000E+00  0.3510E-01  0.0000E+00  0.1986E-01  0.0000E+00  0.3510E-01  0.0000E+00  0.1323E-01  0.0000E+00  0.2009E-01  0.0000E+00  0.2491E-02  0.0000E+00  0.2009E-01  0.0000E+00  0.1323E-01
    -13.026  0.0000E+00  0.1583E-01  0.0000E+00  0.2645E-01  0.0000E+00  0.2434E-01  0.0000E+00  0.2645E-01  0.0000E+00  0.2308E-01  0.0000E+00  0.3655E-01  0.0000E+00  0.3007E-02  0.0000E+00  0.3655E-01  0.0000E+00  0.2308E-01
    -12.923  0.0000E+00  0.4166E-02  0.0000E+00  0.6276E-02  0.0000E+00  0.9122E-02  0.0000E+00  0.6276E-02  0.0000E+00  0.9448E-02  0.0000E+00  0.1534E-01  0.0000E+00  0.1102E-02  0.0000E+00  0.1534E-01  0.0000E+00  0.9448E-02
    -12.819  0.0000E+00  0.1664E-04  0.0000E+00  0.2766E-04  0.0000E+00  0.4156E-04  0.0000E+00  0.2766E-04  0.0000E+00  0.4423E-04  0.0000E+00  0.7144E-04  0.0000E+00  0.5025E-05  0.0000E+00  0.7144E-04  0.0000E+00  0.4423E-04
    -12.715  0.0000E+00  0.4760E-10  0.0000E+00  0.9690E-10  0.0000E+00  0.1344E-09  0.0000E+00  0.9690E-10  0.0000E+00  0.1458E-09  0.0000E+00  0.2329E-09  0.0000E+00  0.1634E-10  0.0000E+00  0.2329E-09  0.0000E+00  0.1458E-09
    -12.611  0.0000E+00  0.0000E+00  0.0000E+00  0.0000E+00  0.0000E+00  0.0000E+00  0.0000E+00  0.0000E+00  0.0000E+00  0.0000E+00  0.0000E+00  0.0000E+00  0.0000E+00  0.0000E+00  0.0000E+00  0.0000E+00  0.0000E+00  0.0000E+00
    -12.508  0.0000E+00  0.0000E+00  0.0000E+00  0.0000E+00  0.0000E+00  0.0000E+00  0.0000E+00  0.0000E+00  0.0000E+00  0.0000E+00  0.0000E+00  0.0000E+00  0.0000E+00  0.0000E+00  0.0000E+00  0.0000E+00  0.0000E+00  0.0000E+00
    -12.404  0.0000E+00  0.0000E+00  0.0000E+00  0.0000E+00  0.0000E+00  0.0000E+00  0.0000E+00  0.0000E+00  0.0000E+00  0.0000E+00  0.0000E+00  0.0000E+00  0.0000E+00  0.0000E+00  0.0000E+00  0.0000E+00  0.0000E+00  0.0000E+00
    -12.300  0.0000E+00  0.0000E+00  0.0000E+00  0.0000E+00  0.0000E+00  0.0000E+00  0.0000E+00  0.0000E+00  0.0000E+00  0.0000E+00  0.0000E+00  0.0000E+00  0.0000E+00  0.0000E+00  0.0000E+00  0.0000E+00  0.0000E+00  0.0000E+00
    -12.196  0.0000E+00  0.0000E+00  0.0000E+00  0.0000E+00  0.0000E+00  0.0000E+00  0.0000E+00  0.0000E+00  0.0000E+00  0.0000E+00  0.0000E+00  0.0000E+00  0.0000E+00  0.0000E+00  0.0000E+00  0.0000E+00  0.0000E+00  0.0000E+00
    -12.092  0.0000E+00  0.0000E+00  0.0000E+00  0.0000E+00  0.0000E+00  0.0000E+00  0.0000E+00  0.0000E+00  0.0000E+00  0.0000E+00  0.0000E+00  0.0000E+00  0.0000E+00  0.0000E+00  0.0000E+00  0.0000E+00  0.0000E+00  0.0000E+00
    -11.989  0.0000E+00  0.0000E+00  0.0000E+00  0.0000E+00  0.0000E+00  0.0000E+00  0.0000E+00  0.0000E+00  0.0000E+00  0.0000E+00  0.0000E+00  0.0000E+00  0.0000E+00  0.0000E+00  0.0000E+00  0.0000E+00  0.0000E+00  0.0000E+00
    -11.885  0.0000E+00  0.0000E+00  0.0000E+00  0.0000E+00  0.0000E+00  0.0000E+00  0.0000E+00  0.0000E+00  0.0000E+00  0.0000E+00  0.0000E+00  0.0000E+00  0.0000E+00  0.0000E+00  0.0000E+00  0.0000E+00  0.0000E+00  0.0000E+00
    -11.781  0.0000E+00  0.0000E+00  0.0000E+00  0.0000E+00  0.0000E+00  0.0000E+00  0.0000E+00  0.0000E+00  0.0000E+00  0.0000E+00  0.0000E+00  0.0000E+00  0.0000E+00  0.0000E+00  0.0000E+00  0.0000E+00  0.0000E+00  0.0000E+00
    -11.677  0.0000E+00  0.0000E+00  0.0000E+00  0.0000E+00  0.0000E+00  0.0000E+00  0.0000E+00  0.0000E+00  0.0000E+00  0.0000E+00  0.0000E+00  0.0000E+00  0.0000E+00  0.0000E+00  0.0000E+00  0.0000E+00  0.0000E+00  0.0000E+00
    -11.574  0.0000E+00  0.0000E+00  0.0000E+00  0.0000E+00  0.0000E+00  0.0000E+00  0.0000E+00  0.0000E+00  0.0000E+00  0.0000E+00  0.0000E+00  0.0000E+00  0.0000E+00  0.0000E+00  0.0000E+00  0.0000E+00  0.0000E+00  0.0000E+00